# vtk DataFile Version 2.0
Locations of observed stations
ASCII
DATASET UNSTRUCTURED_GRID
POINTS 36 float
  -1.266600e+04   -1.266600e+04    0.000000e+00
  -1.266600e+04   -8.666000e+03    0.000000e+00
  -1.266600e+04   -4.666000e+03    0.000000e+00
  -1.266600e+04    5.333000e+03    0.000000e+00
  -1.266600e+04    9.333000e+03    0.000000e+00
  -1.266600e+04    1.333300e+04    0.000000e+00
  -8.666000e+03   -1.266600e+04    0.000000e+00
  -8.666000e+03   -8.666000e+03    0.000000e+00
  -8.666000e+03   -4.666000e+03    0.000000e+00
  -8.666000e+03    5.333000e+03    0.000000e+00
  -8.666000e+03    9.333000e+03    0.000000e+00
  -8.666000e+03    1.333300e+04    0.000000e+00
  -4.666000e+03   -1.266600e+04    0.000000e+00
  -4.666000e+03   -8.666000e+03    0.000000e+00
  -4.666000e+03   -4.666000e+03    0.000000e+00
  -4.666000e+03    5.333000e+03    0.000000e+00
  -4.666000e+03    9.333000e+03    0.000000e+00
  -4.666000e+03    1.333300e+04    0.000000e+00
   5.333000e+03   -1.266600e+04    0.000000e+00
   5.333000e+03   -8.666000e+03    0.000000e+00
   5.333000e+03   -4.666000e+03    0.000000e+00
   5.333000e+03    5.333000e+03    0.000000e+00
   5.333000e+03    9.333000e+03    0.000000e+00
   5.333000e+03    1.333300e+04    0.000000e+00
   9.333000e+03   -1.266600e+04    0.000000e+00
   9.333000e+03   -8.666000e+03    0.000000e+00
   9.333000e+03   -4.666000e+03    0.000000e+00
   9.333000e+03    5.333000e+03    0.000000e+00
   9.333000e+03    9.333000e+03    0.000000e+00
   9.333000e+03    1.333300e+04    0.000000e+00
   1.333300e+04   -1.266600e+04    0.000000e+00
   1.333300e+04   -8.666000e+03    0.000000e+00
   1.333300e+04   -4.666000e+03    0.000000e+00
   1.333300e+04    5.333000e+03    0.000000e+00
   1.333300e+04    9.333000e+03    0.000000e+00
   1.333300e+04    1.333300e+04    0.000000e+00
CELLS 36 72
1 0
1 1
1 2
1 3
1 4
1 5
1 6
1 7
1 8
1 9
1 10
1 11
1 12
1 13
1 14
1 15
1 16
1 17
1 18
1 19
1 20
1 21
1 22
1 23
1 24
1 25
1 26
1 27
1 28
1 29
1 30
1 31
1 32
1 33
1 34
1 35
CELL_TYPES 36
1
1
1
1
1
1
1
1
1
1
1
1
1
1
1
1
1
1
1
1
1
1
1
1
1
1
1
1
1
1
1
1
1
1
1
1
CELL_DATA 36
SCALARS station_ID int
LOOKUP_TABLE default
1
2
3
4
5
6
7
8
9
10
11
12
13
14
15
16
17
18
19
20
21
22
23
24
25
26
27
28
29
30
31
32
33
34
35
36
SCALARS station_type int
LOOKUP_TABLE default
0
0
0
0
0
0
0
0
0
0
0
0
0
0
0
0
0
0
0
0
0
0
0
0
0
0
0
0
0
0
0
0
0
0
0
0
